/*--------------------------------*- C++ -*----------------------------------*\
  =========                 |
  \\      /  F ield         | OpenFOAM: The Open Source CFD Toolbox
   \\    /   O peration     | Website:  https://openfoam.org
    \\  /    A nd           | Version:  7
     \\/     M anipulation  |
\*---------------------------------------------------------------------------*/
FoamFile
{
    version     2.0;
    format      ascii;
    class       volVectorField;
    location    "0";
    object      U;
}
// * * * * * * * * * * * * * * * * * * * * * * * * * * * * * * * * * * * * * //

dimensions      [0 1 -1 0 0 0 0];

internalField   nonuniform List<vector> 
150000
(
(2.7621 0 0)
(2.75816 0 0)
(2.75417 0 0)
(2.75013 0 0)
(2.74604 0 0)
(2.7419 0 0)
(2.73771 0 0)
(2.73347 0 0)
(2.72918 0 0)
(2.72484 0 0)
(2.72045 0 0)
(2.71601 0 0)
(2.71151 0 0)
(2.70696 0 0)
(2.70236 0 0)
(2.69771 0 0)
(2.693 0 0)
(2.68824 0 0)
(2.68343 0 0)
(2.67857 0 0)
(2.67365 0 0)
(2.66867 0 0)
(2.66365 0 0)
(2.65856 0 0)
(2.65343 0 0)
(2.64824 0 0)
(2.64299 0 0)
(2.63769 0 0)
(2.63233 0 0)
(2.62692 0 0)
(2.62146 0 0)
(2.61593 0 0)
(2.61036 0 0)
(2.60472 0 0)
(2.59903 0 0)
(2.59329 0 0)
(2.58748 0 0)
(2.58163 0 0)
(2.57571 0 0)
(2.56974 0 0)
(2.56371 0 0)
(2.55763 0 0)
(2.55149 0 0)
(2.54529 0 0)
(2.53904 0 0)
(2.53273 0 0)
(2.52636 0 0)
(2.51994 0 0)
(2.51345 0 0)
(2.50692 0 0)
(2.50032 0 0)
(2.49367 0 0)
(2.48696 0 0)
(2.4802 0 0)
(2.47338 0 0)
(2.4665 0 0)
(2.45957 0 0)
(2.45258 0 0)
(2.44554 0 0)
(2.43843 0 0)
(2.43128 0 0)
(2.42406 0 0)
(2.41679 0 0)
(2.40947 0 0)
(2.40209 0 0)
(2.39465 0 0)
(2.38716 0 0)
(2.37961 0 0)
(2.37201 0 0)
(2.36436 0 0)
(2.35665 0 0)
(2.34889 0 0)
(2.34107 0 0)
(2.3332 0 0)
(2.32527 0 0)
(2.3173 0 0)
(2.30927 0 0)
(2.30118 0 0)
(2.29305 0 0)
(2.28486 0 0)
(2.27662 0 0)
(2.26833 0 0)
(2.25999 0 0)
(2.2516 0 0)
(2.24316 0 0)
(2.23467 0 0)
(2.22613 0 0)
(2.21754 0 0)
(2.2089 0 0)
(2.20021 0 0)
(2.19147 0 0)
(2.18269 0 0)
(2.17386 0 0)
(2.16498 0 0)
(2.15606 0 0)
(2.14709 0 0)
(2.13808 0 0)
(2.12902 0 0)
(2.11991 0 0)
(2.11077 0 0)
(2.10157 0 0)
(2.09234 0 0)
(2.08307 0 0)
(2.07375 0 0)
(2.06439 0 0)
(2.05499 0 0)
(2.04555 0 0)
(2.03607 0 0)
(2.02655 0 0)
(2.017 0 0)
(2.0074 0 0)
(1.99777 0 0)
(1.9881 0 0)
(1.9784 0 0)
(1.96866 0 0)
(1.95888 0 0)
(1.94908 0 0)
(1.93923 0 0)
(1.92936 0 0)
(1.91945 0 0)
(1.90952 0 0)
(1.89955 0 0)
(1.88955 0 0)
(1.87952 0 0)
(1.86947 0 0)
(1.85938 0 0)
(1.84927 0 0)
(1.83913 0 0)
(1.82897 0 0)
(1.81878 0 0)
(1.80857 0 0)
(1.79833 0 0)
(1.78807 0 0)
(1.77779 0 0)
(1.76749 0 0)
(1.75716 0 0)
(1.74682 0 0)
(1.73646 0 0)
(1.72608 0 0)
(1.71568 0 0)
(1.70527 0 0)
(1.69483 0 0)
(1.68439 0 0)
(1.67393 0 0)
(1.66346 0 0)
(1.65297 0 0)
(1.64247 0 0)
(1.63196 0 0)
(1.62144 0 0)
(1.61092 0 0)
(1.60038 0 0)
(1.58983 0 0)
(1.57928 0 0)
(1.56872 0 0)
(1.55816 0 0)
(1.54759 0 0)
(1.53702 0 0)
(1.52644 0 0)
(1.51587 0 0)
(1.50529 0 0)
(1.49471 0 0)
(1.48413 0 0)
(1.47356 0 0)
(1.46298 0 0)
(1.45241 0 0)
(1.44184 0 0)
(1.43128 0 0)
(1.42072 0 0)
(1.41017 0 0)
(1.39962 0 0)
(1.38908 0 0)
(1.37856 0 0)
(1.36804 0 0)
(1.35753 0 0)
(1.34703 0 0)
(1.33654 0 0)
(1.32607 0 0)
(1.31561 0 0)
(1.30517 0 0)
(1.29473 0 0)
(1.28432 0 0)
(1.27392 0 0)
(1.26354 0 0)
(1.25318 0 0)
(1.24284 0 0)
(1.23251 0 0)
(1.22221 0 0)
(1.21193 0 0)
(1.20167 0 0)
(1.19143 0 0)
(1.18122 0 0)
(1.17103 0 0)
(1.16087 0 0)
(1.15073 0 0)
(1.14062 0 0)
(1.13053 0 0)
(1.12048 0 0)
(1.11045 0 0)
(1.10045 0 0)
(1.09048 0 0)
(1.08055 0 0)
(1.07064 0 0)
(1.06077 0 0)
(1.05092 0 0)
(1.04112 0 0)
(1.03134 0 0)
(1.0216 0 0)
(1.0119 0 0)
(1.00223 0 0)
(0.992599 0 0)
(0.983005 0 0)
(0.973448 0 0)
(0.96393 0 0)
(0.954451 0 0)
(0.945011 0 0)
(0.935611 0 0)
(0.926253 0 0)
(0.916935 0 0)
(0.907659 0 0)
(0.898425 0 0)
(0.889235 0 0)
(0.880087 0 0)
(0.870984 0 0)
(0.861924 0 0)
(0.85291 0 0)
(0.843941 0 0)
(0.835017 0 0)
(0.82614 0 0)
(0.81731 0 0)
(0.808527 0 0)
(0.799791 0 0)
(0.791103 0 0)
(0.782464 0 0)
(0.773873 0 0)
(0.765332 0 0)
(0.75684 0 0)
(0.748398 0 0)
(0.740007 0 0)
(0.731666 0 0)
(0.723376 0 0)
(0.715137 0 0)
(0.70695 0 0)
(0.698815 0 0)
(0.690733 0 0)
(0.682703 0 0)
(0.674725 0 0)
(0.666801 0 0)
(0.65893 0 0)
(0.651113 0 0)
(0.64335 0 0)
(0.63564 0 0)
(0.627986 0 0)
(0.620385 0 0)
(0.612839 0 0)
(0.605349 0 0)
(0.597913 0 0)
(0.590533 0 0)
(0.583208 0 0)
(0.575938 0 0)
(0.568725 0 0)
(0.561567 0 0)
(0.554465 0 0)
(0.547419 0 0)
(0.54043 0 0)
(0.533496 0 0)
(0.52662 0 0)
(0.519799 0 0)
(0.513035 0 0)
(0.506328 0 0)
(0.499677 0 0)
(0.493083 0 0)
(0.486546 0 0)
(0.480065 0 0)
(0.473641 0 0)
(0.467274 0 0)
(0.460963 0 0)
(0.454709 0 0)
(0.448512 0 0)
(0.442371 0 0)
(0.436287 0 0)
(0.43026 0 0)
(0.424289 0 0)
(0.418374 0 0)
(0.412516 0 0)
(0.406714 0 0)
(0.400968 0 0)
(0.395278 0 0)
(0.389645 0 0)
(0.384067 0 0)
(0.378544 0 0)
(0.373078 0 0)
(0.367666 0 0)
(0.36231 0 0)
(0.35701 0 0)
(0.351764 0 0)
(0.346573 0 0)
(0.341437 0 0)
(0.336355 0 0)
(0.331327 0 0)
(0.326354 0 0)
(0.321434 0 0)
(0.316569 0 0)
(0.311756 0 0)
(0.306997 0 0)
(0.302291 0 0)
(0.297638 0 0)
(0.293038 0 0)
(0.288489 0 0)
(0.283993 0 0)
(0.279549 0 0)
(0.275157 0 0)
(0.270815 0 0)
(0.266525 0 0)
(0.262286 0 0)
(0.258097 0 0)
(0.253958 0 0)
(0.24987 0 0)
(0.245831 0 0)
(0.241841 0 0)
(0.237901 0 0)
(0.234009 0 0)
(0.230166 0 0)
(0.226371 0 0)
(0.222624 0 0)
(0.218924 0 0)
(0.215272 0 0)
(0.211667 0 0)
(0.208108 0 0)
(0.204595 0 0)
(0.201129 0 0)
(0.197708 0 0)
(0.194332 0 0)
(0.191001 0 0)
(0.187715 0 0)
(0.184473 0 0)
(0.181275 0 0)
(0.178121 0 0)
(0.175009 0 0)
(0.171941 0 0)
(0.168915 0 0)
(0.165931 0 0)
(0.162989 0 0)
(0.160088 0 0)
(0.157229 0 0)
(0.15441 0 0)
(0.151631 0 0)
(0.148893 0 0)
(0.146194 0 0)
(0.143534 0 0)
(0.140913 0 0)
(0.138331 0 0)
(0.135787 0 0)
(0.133281 0 0)
(0.130812 0 0)
(0.12838 0 0)
(0.125984 0 0)
(0.123625 0 0)
(0.121303 0 0)
(0.119015 0 0)
(0.116763 0 0)
(0.114545 0 0)
(0.112362 0 0)
(0.110214 0 0)
(0.108099 0 0)
(0.106017 0 0)
(0.103968 0 0)
(0.101952 0 0)
(0.099968 0 0)
(0.0980161 0 0)
(0.0960956 0 0)
(0.0942064 0 0)
(0.092348 0 0)
(0.09052 0 0)
(0.0887221 0 0)
(0.0869539 0 0)
(0.0852152 0 0)
(0.0835054 0 0)
(0.0818244 0 0)
(0.0801717 0 0)
(0.0785469 0 0)
(0.0769498 0 0)
(0.0753799 0 0)
(0.073837 0 0)
(0.0723206 0 0)
(0.0708305 0 0)
(0.0693663 0 0)
(0.0679277 0 0)
(0.0665143 0 0)
(0.0651259 0 0)
(0.0637619 0 0)
(0.0624223 0 0)
(0.0611065 0 0)
(0.0598143 0 0)
(0.0585454 0 0)
(0.0572994 0 0)
(0.056076 0 0)
(0.0548749 0 0)
(0.0536958 0 0)
(0.0525384 0 0)
(0.0514024 0 0)
(0.0502874 0 0)
(0.0491932 0 0)
(0.0481194 0 0)
(0.0470658 0 0)
(0.046032 0 0)
(0.0450178 0 0)
(0.0440228 0 0)
(0.0430469 0 0)
(0.0420896 0 0)
(0.0411507 0 0)
(0.04023 0 0)
(0.039327 0 0)
(0.0384417 0 0)
(0.0375737 0 0)
(0.0367226 0 0)
(0.0358884 0 0)
(0.0350706 0 0)
(0.034269 0 0)
(0.0334834 0 0)
(0.0327135 0 0)
(0.0319591 0 0)
(0.0312199 0 0)
(0.0304956 0 0)
(0.029786 0 0)
(0.0290908 0 0)
(0.0284099 0 0)
(0.027743 0 0)
(0.0270898 0 0)
(0.0264501 0 0)
(0.0258237 0 0)
(0.0252104 0 0)
(0.0246098 0 0)
(0.0240219 0 0)
(0.0234464 0 0)
(0.022883 0 0)
(0.0223316 0 0)
(0.0217919 0 0)
(0.0212637 0 0)
(0.0207469 0 0)
(0.0202412 0 0)
(0.0197465 0 0)
(0.0192624 0 0)
(0.0187889 0 0)
(0.0183257 0 0)
(0.0178727 0 0)
(0.0174296 0 0)
(0.0169963 0 0)
(0.0165726 0 0)
(0.0161583 0 0)
(0.0157532 0 0)
(0.0153572 0 0)
(0.0149701 0 0)
(0.0145916 0 0)
(0.0142218 0 0)
(0.0138603 0 0)
(0.013507 0 0)
(0.0131619 0 0)
(0.0128246 0 0)
(0.012495 0 0)
(0.0121731 0 0)
(0.0118586 0 0)
(0.0115514 0 0)
(0.0112513 0 0)
(0.0109583 0 0)
(0.0106721 0 0)
(0.0103927 0 0)
(0.0101198 0 0)
(0.00985341 0 0)
(0.00959333 0 0)
(0.00933945 0 0)
(0.00909163 0 0)
(0.00884975 0 0)
(0.00861369 0 0)
(0.00838332 0 0)
(0.00815852 0 0)
(0.00793918 0 0)
(0.00772518 0 0)
(0.0075164 0 0)
(0.00731274 0 0)
(0.00711409 0 0)
(0.00692033 0 0)
(0.00673136 0 0)
(0.00654708 0 0)
(0.00636739 0 0)
(0.00619218 0 0)
(0.00602136 0 0)
(0.00585482 0 0)
(0.00569248 0 0)
(0.00553424 0 0)
(0.00538001 0 0)
(0.0052297 0 0)
(0.00508322 0 0)
(0.00494049 0 0)
(0.00480142 0 0)
(0.00466592 0 0)
(0.00453392 0 0)
(0.00440533 0 0)
(0.00428008 0 0)
(0.00415809 0 0)
(0.00403928 0 0)
(2.7621 0 0)
(2.75816 0 0)
(2.75417 0 0)
(2.75013 0 0)
(2.74604 0 0)
(2.7419 0 0)
(2.73771 0 0)
(2.73347 0 0)
(2.72918 0 0)
(2.72484 0 0)
(2.72045 0 0)
(2.71601 0 0)
(2.71151 0 0)
(2.70696 0 0)
(2.70236 0 0)
(2.69771 0 0)
(2.693 0 0)
(2.68824 0 0)
(2.68343 0 0)
(2.67857 0 0)
(2.67365 0 0)
(2.66867 0 0)
(2.66365 0 0)
(2.65856 0 0)
(2.65343 0 0)
(2.64824 0 0)
(2.64299 0 0)
(2.63769 0 0)
(2.63233 0 0)
(2.62692 0 0)
(2.62146 0 0)
(2.61593 0 0)
(2.61036 0 0)
(2.60472 0 0)
(2.59903 0 0)
(2.59329 0 0)
(2.58748 0 0)
(2.58163 0 0)
(2.57571 0 0)
(2.56974 0 0)
(2.56371 0 0)
(2.55763 0 0)
(2.55149 0 0)
(2.54529 0 0)
(2.53904 0 0)
(2.53273 0 0)
(2.52636 0 0)
(2.51994 0 0)
(2.51345 0 0)
(2.50692 0 0)
(2.50032 0 0)
(2.49367 0 0)
(2.48696 0 0)
(2.4802 0 0)
(2.47338 0 0)
(2.4665 0 0)
(2.45957 0 0)
(2.45258 0 0)
(2.44554 0 0)
(2.43843 0 0)
(2.43128 0 0)
(2.42406 0 0)
(2.41679 0 0)
(2.40947 0 0)
(2.40209 0 0)
(2.39465 0 0)
(2.38716 0 0)
(2.37961 0 0)
(2.37201 0 0)
(2.36436 0 0)
(2.35665 0 0)
(2.34889 0 0)
(2.34107 0 0)
(2.3332 0 0)
(2.32527 0 0)
(2.3173 0 0)
(2.30927 0 0)
(2.30118 0 0)
(2.29305 0 0)
(2.28486 0 0)
(2.27662 0 0)
(2.26833 0 0)
(2.25999 0 0)
(2.2516 0 0)
(2.24316 0 0)
(2.23467 0 0)
(2.22613 0 0)
(2.21754 0 0)
(2.2089 0 0)
(2.20021 0 0)
(2.19147 0 0)
(2.18269 0 0)
(2.17386 0 0)
(2.16498 0 0)
(2.15606 0 0)
(2.14709 0 0)
(2.13808 0 0)
(2.12902 0 0)
(2.11991 0 0)
(2.11077 0 0)
(2.10157 0 0)
(2.09234 0 0)
(2.08307 0 0)
(2.07375 0 0)
(2.06439 0 0)
(2.05499 0 0)
(2.04555 0 0)
(2.03607 0 0)
(2.02655 0 0)
(2.017 0 0)
(2.0074 0 0)
(1.99777 0 0)
(1.9881 0 0)
(1.9784 0 0)
(1.96866 0 0)
(1.95888 0 0)
(1.94908 0 0)
(1.93923 0 0)
(1.92936 0 0)
(1.91945 0 0)
(1.90952 0 0)
(1.89955 0 0)
(1.88955 0 0)
(1.87952 0 0)
(1.86947 0 0)
(1.85938 0 0)
(1.84927 0 0)
(1.83913 0 0)
(1.82897 0 0)
(1.81878 0 0)
(1.80857 0 0)
(1.79833 0 0)
(1.78807 0 0)
(1.77779 0 0)
(1.76749 0 0)
(1.75716 0 0)
(1.74682 0 0)
(1.73646 0 0)
(1.72608 0 0)
(1.71568 0 0)
(1.70527 0 0)
(1.69483 0 0)
(1.68439 0 0)
(1.67393 0 0)
(1.66346 0 0)
(1.65297 0 0)
(1.64247 0 0)
(1.63196 0 0)
(1.62144 0 0)
(1.61092 0 0)
(1.60038 0 0)
(1.58983 0 0)
(1.57928 0 0)
(1.56872 0 0)
(1.55816 0 0)
(1.54759 0 0)
(1.53702 0 0)
(1.52644 0 0)
(1.51587 0 0)
(1.50529 0 0)
(1.49471 0 0)
(1.48413 0 0)
(1.47356 0 0)
(1.46298 0 0)
(1.45241 0 0)
(1.44184 0 0)
(1.43128 0 0)
(1.42072 0 0)
(1.41017 0 0)
(1.39962 0 0)
(1.38908 0 0)
(1.37856 0 0)
(1.36804 0 0)
(1.35753 0 0)
(1.34703 0 0)
(1.33654 0 0)
(1.32607 0 0)
(1.31561 0 0)
(1.30517 0 0)
(1.29473 0 0)
(1.28432 0 0)
(1.27392 0 0)
(1.26354 0 0)
(1.25318 0 0)
(1.24284 0 0)
(1.23251 0 0)
(1.22221 0 0)
(1.21193 0 0)
(1.20167 0 0)
(1.19143 0 0)
(1.18122 0 0)
(1.17103 0 0)
(1.16087 0 0)
(1.15073 0 0)
(1.14062 0 0)
(1.13053 0 0)
(1.12048 0 0)
(1.11045 0 0)
(1.10045 0 0)
(1.09048 0 0)
(1.08055 0 0)
(1.07064 0 0)
(1.06077 0 0)
(1.05092 0 0)
(1.04112 0 0)
(1.03134 0 0)
(1.0216 0 0)
(1.0119 0 0)
(1.00223 0 0)
(0.992599 0 0)
(0.983005 0 0)
(0.973448 0 0)
(0.96393 0 0)
(0.954451 0 0)
(0.945011 0 0)
(0.935611 0 0)
(0.926253 0 0)
(0.916935 0 0)
(0.907659 0 0)
(0.898425 0 0)
(0.889235 0 0)
(0.880087 0 0)
(0.870984 0 0)
(0.861924 0 0)
(0.85291 0 0)
(0.843941 0 0)
(0.835017 0 0)
(0.82614 0 0)
(0.81731 0 0)
(0.808527 0 0)
(0.799791 0 0)
(0.791103 0 0)
(0.782464 0 0)
(0.773873 0 0)
(0.765332 0 0)
(0.75684 0 0)
(0.748398 0 0)
(0.740007 0 0)
(0.731666 0 0)
(0.723376 0 0)
(0.715137 0 0)
(0.70695 0 0)
(0.698815 0 0)
(0.690733 0 0)
(0.682703 0 0)
(0.674725 0 0)
(0.666801 0 0)
(0.65893 0 0)
(0.651113 0 0)
(0.64335 0 0)
(0.63564 0 0)
(0.627986 0 0)
(0.620385 0 0)
(0.612839 0 0)
(0.605349 0 0)
(0.597913 0 0)
(0.590533 0 0)
(0.583208 0 0)
(0.575938 0 0)
(0.568725 0 0)
(0.561567 0 0)
(0.554465 0 0)
(0.547419 0 0)
(0.54043 0 0)
(0.533496 0 0)
(0.52662 0 0)
(0.519799 0 0)
(0.513035 0 0)
(0.506328 0 0)
(0.499677 0 0)
(0.493083 0 0)
(0.486546 0 0)
(0.480065 0 0)
(0.473641 0 0)
(0.467274 0 0)
(0.460963 0 0)
(0.454709 0 0)
(0.448512 0 0)
(0.442371 0 0)
(0.436287 0 0)
(0.43026 0 0)
(0.424289 0 0)
(0.418374 0 0)
(0.412516 0 0)
(0.406714 0 0)
(0.400968 0 0)
(0.395278 0 0)
(0.389645 0 0)
(0.384067 0 0)
(0.378544 0 0)
(0.373078 0 0)
(0.367666 0 0)
(0.36231 0 0)
(0.35701 0 0)
(0.351764 0 0)
(0.346573 0 0)
(0.341437 0 0)
(0.336355 0 0)
(0.331327 0 0)
(0.326354 0 0)
(0.321434 0 0)
(0.316569 0 0)
(0.311756 0 0)
(0.306997 0 0)
(0.302291 0 0)
(0.297638 0 0)
(0.293038 0 0)
(0.288489 0 0)
(0.283993 0 0)
(0.279549 0 0)
(0.275157 0 0)
(0.270815 0 0)
(0.266525 0 0)
(0.262286 0 0)
(0.258097 0 0)
(0.253958 0 0)
(0.24987 0 0)
(0.245831 0 0)
(0.241841 0 0)
(0.237901 0 0)
(0.234009 0 0)
(0.230166 0 0)
(0.226371 0 0)
(0.222624 0 0)
(0.218924 0 0)
(0.215272 0 0)
(0.211667 0 0)
(0.208108 0 0)
(0.204595 0 0)
(0.201129 0 0)
(0.197708 0 0)
(0.194332 0 0)
(0.191001 0 0)
(0.187715 0 0)
(0.184473 0 0)
(0.181275 0 0)
(0.178121 0 0)
(0.175009 0 0)
(0.171941 0 0)
(0.168915 0 0)
(0.165931 0 0)
(0.162989 0 0)
(0.160088 0 0)
(0.157229 0 0)
(0.15441 0 0)
(0.151631 0 0)
(0.148893 0 0)
(0.146194 0 0)
(0.143534 0 0)
(0.140913 0 0)
(0.138331 0 0)
(0.135787 0 0)
(0.133281 0 0)
(0.130812 0 0)
(0.12838 0 0)
(0.125984 0 0)
(0.123625 0 0)
(0.121303 0 0)
(0.119015 0 0)
(0.116763 0 0)
(0.114545 0 0)
(0.112362 0 0)
(0.110214 0 0)
(0.108099 0 0)
(0.106017 0 0)
(0.103968 0 0)
(0.101952 0 0)
(0.099968 0 0)
(0.0980161 0 0)
(0.0960956 0 0)
(0.0942064 0 0)
(0.092348 0 0)
(0.09052 0 0)
(0.0887221 0 0)
(0.0869539 0 0)
(0.0852152 0 0)
(0.0835054 0 0)
(0.0818244 0 0)
(0.0801717 0 0)
(0.0785469 0 0)
(0.0769498 0 0)
(0.0753799 0 0)
(0.073837 0 0)
(0.0723206 0 0)
(0.0708305 0 0)
(0.0693663 0 0)
(0.0679277 0 0)
(0.0665143 0 0)
(0.0651259 0 0)
(0.0637619 0 0)
(0.0624223 0 0)
(0.0611065 0 0)
(0.0598143 0 0)
(0.0585454 0 0)
(0.0572994 0 0)
(0.056076 0 0)
(0.0548749 0 0)
(0.0536958 0 0)
(0.0525384 0 0)
(0.0514024 0 0)
(0.0502874 0 0)
(0.0491932 0 0)
(0.0481194 0 0)
(0.0470658 0 0)
(0.046032 0 0)
(0.0450178 0 0)
(0.0440228 0 0)
(0.0430469 0 0)
(0.0420896 0 0)
(0.0411507 0 0)
(0.04023 0 0)
(0.039327 0 0)
(0.0384417 0 0)
(0.0375737 0 0)
(0.0367226 0 0)
(0.0358884 0 0)
(0.0350706 0 0)
(0.034269 0 0)
(0.0334834 0 0)
(0.0327135 0 0)
(0.0319591 0 0)
(0.0312199 0 0)
(0.0304956 0 0)
(0.029786 0 0)
(0.0290908 0 0)
(0.0284099 0 0)
(0.027743 0 0)
(0.0270898 0 0)
(0.0264501 0 0)
(0.0258237 0 0)
(0.0252104 0 0)
(0.0246098 0 0)
(0.0240219 0 0)
(0.0234464 0 0)
(0.022883 0 0)
(0.0223316 0 0)
(0.0217919 0 0)
(0.0212637 0 0)
(0.0207469 0 0)
(0.0202412 0 0)
(0.0197465 0 0)
(0.0192624 0 0)
(0.0187889 0 0)
(0.0183257 0 0)
(0.0178727 0 0)
(0.0174296 0 0)
(0.0169963 0 0)
(0.0165726 0 0)
(0.0161583 0 0)
(0.0157532 0 0)
(0.0153572 0 0)
(0.0149701 0 0)
(0.0145916 0 0)
(0.0142218 0 0)
(0.0138603 0 0)
(0.013507 0 0)
(0.0131619 0 0)
(0.0128246 0 0)
(0.012495 0 0)
(0.0121731 0 0)
(0.0118586 0 0)
(0.0115514 0 0)
(0.0112513 0 0)
(0.0109583 0 0)
(0.0106721 0 0)
(0.0103927 0 0)
(0.0101198 0 0)
(0.00985341 0 0)
(0.00959333 0 0)
(0.00933945 0 0)
(0.00909163 0 0)
(0.00884975 0 0)
(0.00861369 0 0)
(0.00838332 0 0)
(0.00815852 0 0)
(0.00793918 0 0)
(0.00772518 0 0)
(0.0075164 0 0)
(0.00731274 0 0)
(0.00711409 0 0)
(0.00692033 0 0)
(0.00673136 0 0)
(0.00654708 0 0)
(0.00636739 0 0)
(0.00619218 0 0)
(0.00602136 0 0)
(0.00585482 0 0)
(0.00569248 0 0)
(0.00553424 0 0)
(0.00538001 0 0)
(0.0052297 0 0)
(0.00508322 0 0)
(0.00494049 0 0)
(0.00480142 0 0)
(0.00466592 0 0)
(0.00453392 0 0)
(0.00440533 0 0)
(0.00428008 0 0)
(0.00415809 0 0)
(0.00403928 0 0)
(2.7621 0 0)
(2.75816 0 0)
(2.75417 0 0)
(2.75013 0 0)
(2.74604 0 0)
(2.7419 0 0)
(2.73771 0 0)
(2.73347 0 0)
(2.72918 0 0)
(2.72484 0 0)
(2.72045 0 0)
(2.71601 0 0)
(2.71151 0 0)
(2.70696 0 0)
(2.70236 0 0)
(2.69771 0 0)
(2.693 0 0)
(2.68824 0 0)
(2.68343 0 0)
(2.67857 0 0)
(2.67365 0 0)
(2.66867 0 0)
(2.66365 0 0)
(2.65856 0 0)
(2.65343 0 0)
(2.64824 0 0)
(2.64299 0 0)
(2.63769 0 0)
(2.63233 0 0)
(2.62692 0 0)
(2.62146 0 0)
(2.61593 0 0)
(2.61036 0 0)
(2.60472 0 0)
(2.59903 0 0)
(2.59329 0 0)
(2.58748 0 0)
(2.58163 0 0)
(2.57571 0 0)
(2.56974 0 0)
(2.56371 0 0)
(2.55763 0 0)
(2.55149 0 0)
(2.54529 0 0)
(2.53904 0 0)
(2.53273 0 0)
(2.52636 0 0)
(2.51994 0 0)
(2.51345 0 0)
(2.50692 0 0)
(2.50032 0 0)
(2.49367 0 0)
(2.48696 0 0)
(2.4802 0 0)
(2.47338 0 0)
(2.4665 0 0)
(2.45957 0 0)
(2.45258 0 0)
(2.44554 0 0)
(2.43843 0 0)
(2.43128 0 0)
(2.42406 0 0)
(2.41679 0 0)
(2.40947 0 0)
(2.40209 0 0)
(2.39465 0 0)
(2.38716 0 0)
(2.37961 0 0)
(2.37201 0 0)
(2.36436 0 0)
(2.35665 0 0)
(2.34889 0 0)
(2.34107 0 0)
(2.3332 0 0)
(2.32527 0 0)
(2.3173 0 0)
(2.30927 0 0)
(2.30118 0 0)
(2.29305 0 0)
(2.28486 0 0)
(2.27662 0 0)
(2.26833 0 0)
(2.25999 0 0)
(2.2516 0 0)
(2.24316 0 0)
(2.23467 0 0)
(2.22613 0 0)
(2.21754 0 0)
(2.2089 0 0)
(2.20021 0 0)
(2.19147 0 0)
(2.18269 0 0)
(2.17386 0 0)
(2.16498 0 0)
(2.15606 0 0)
(2.14709 0 0)
(2.13808 0 0)
(2.12902 0 0)
(2.11991 0 0)
(2.11077 0 0)
(2.10157 0 0)
(2.09234 0 0)
(2.08307 0 0)
(2.07375 0 0)
(2.06439 0 0)
(2.05499 0 0)
(2.04555 0 0)
(2.03607 0 0)
(2.02655 0 0)
(2.017 0 0)
(2.0074 0 0)
(1.99777 0 0)
(1.9881 0 0)
(1.9784 0 0)
(1.96866 0 0)
(1.95888 0 0)
(1.94908 0 0)
(1.93923 0 0)
(1.92936 0 0)
(1.91945 0 0)
(1.90952 0 0)
(1.89955 0 0)
(1.88955 0 0)
(1.87952 0 0)
(1.86947 0 0)
(1.85938 0 0)
(1.84927 0 0)
(1.83913 0 0)
(1.82897 0 0)
(1.81878 0 0)
(1.80857 0 0)
(1.79833 0 0)
(1.78807 0 0)
(1.77779 0 0)
(1.76749 0 0)
(1.75716 0 0)
(1.74682 0 0)
(1.73646 0 0)
(1.72608 0 0)
(1.71568 0 0)
(1.70527 0 0)
(1.69483 0 0)
(1.68439 0 0)
(1.67393 0 0)
(1.66346 0 0)
(1.65297 0 0)
(1.64247 0 0)
(1.63196 0 0)
(1.62144 0 0)
(1.61092 0 0)
(1.60038 0 0)
(1.58983 0 0)
(1.57928 0 0)
(1.56872 0 0)
(1.55816 0 0)
(1.54759 0 0)
(1.53702 0 0)
(1.52644 0 0)
(1.51587 0 0)
(1.50529 0 0)
(1.49471 0 0)
(1.48413 0 0)
(1.47356 0 0)
(1.46298 0 0)
(1.45241 0 0)
(1.44184 0 0)
(1.43128 0 0)
(1.42072 0 0)
(1.41017 0 0)
(1.39962 0 0)
(1.38908 0 0)
(1.37856 0 0)
(1.36804 0 0)
(1.35753 0 0)
(1.34703 0 0)
(1.33654 0 0)
(1.32607 0 0)
(1.31561 0 0)
(1.30517 0 0)
(1.29473 0 0)
(1.28432 0 0)
(1.27392 0 0)
(1.26354 0 0)
(1.25318 0 0)
(1.24284 0 0)
(1.23251 0 0)
(1.22221 0 0)
(1.21193 0 0)
(1.20167 0 0)
(1.19143 0 0)
(1.18122 0 0)
(1.17103 0 0)
(1.16087 0 0)
(1.15073 0 0)
(1.14062 0 0)
(1.13053 0 0)
(1.12048 0 0)
(1.11045 0 0)
(1.10045 0 0)
(1.09048 0 0)
(1.08055 0 0)
(1.07064 0 0)
(1.06077 0 0)
(1.05092 0 0)
(1.04112 0 0)
(1.03134 0 0)
(1.0216 0 0)
(1.0119 0 0)
(1.00223 0 0)
(0.992599 0 0)
(0.983005 0 0)
(0.973448 0 0)
(0.96393 0 0)
(0.954451 0 0)
(0.945011 0 0)
(0.935611 0 0)
(0.926253 0 0)
(0.916935 0 0)
(0.907659 0 0)
(0.898425 0 0)
(0.889235 0 0)
(0.880087 0 0)
(0.870984 0 0)
(0.861924 0 0)
(0.85291 0 0)
(0.843941 0 0)
(0.835017 0 0)
(0.82614 0 0)
(0.81731 0 0)
(0.808527 0 0)
(0.799791 0 0)
(0.791103 0 0)
(0.782464 0 0)
(0.773873 0 0)
(0.765332 0 0)
(0.75684 0 0)
(0.748398 0 0)
(0.740007 0 0)
(0.731666 0 0)
(0.723376 0 0)
(0.715137 0 0)
(0.70695 0 0)
(0.698815 0 0)
(0.690733 0 0)
(0.682703 0 0)
(0.674725 0 0)
(0.666801 0 0)
(0.65893 0 0)
(0.651113 0 0)
(0.64335 0 0)
(0.63564 0 0)
(0.627986 0 0)
(0.620385 0 0)
(0.612839 0 0)
(0.605349 0 0)
(0.597913 0 0)
(0.590533 0 0)
(0.583208 0 0)
(0.575938 0 0)
(0.568725 0 0)
(0.561567 0 0)
(0.554465 0 0)
(0.547419 0 0)
(0.54043 0 0)
(0.533496 0 0)
(0.52662 0 0)
(0.519799 0 0)
(0.513035 0 0)
(0.506328 0 0)
(0.499677 0 0)
(0.493083 0 0)
(0.486546 0 0)
(0.480065 0 0)
(0.473641 0 0)
(0.467274 0 0)
(0.460963 0 0)
(0.454709 0 0)
(0.448512 0 0)
(0.442371 0 0)
(0.436287 0 0)
(0.43026 0 0)
(0.424289 0 0)
(0.418374 0 0)
(0.412516 0 0)
(0.406714 0 0)
(0.400968 0 0)
(0.395278 0 0)
(0.389645 0 0)
(0.384067 0 0)
(0.378544 0 0)
(0.373078 0 0)
(0.367666 0 0)
(0.36231 0 0)
(0.35701 0 0)
(0.351764 0 0)
(0.346573 0 0)
(0.341437 0 0)
(0.336355 0 0)
(0.331327 0 0)
(0.326354 0 0)
(0.321434 0 0)
(0.316569 0 0)
(0.311756 0 0)
(0.306997 0 0)
(0.302291 0 0)
(0.297638 0 0)
(0.293038 0 0)
(0.288489 0 0)
(0.283993 0 0)
(0.279549 0 0)
(0.275157 0 0)
(0.270815 0 0)
(0.266525 0 0)
(0.262286 0 0)
(0.258097 0 0)
(0.253958 0 0)
(0.24987 0 0)
(0.245831 0 0)
(0.241841 0 0)
(0.237901 0 0)
(0.234009 0 0)
(0.230166 0 0)
(0.226371 0 0)
(0.222624 0 0)
(0.218924 0 0)
(0.215272 0 0)
(0.211667 0 0)
(0.208108 0 0)
(0.204595 0 0)
(0.201129 0 0)
(0.197708 0 0)
(0.194332 0 0)
(0.191001 0 0)
(0.187715 0 0)
(0.184473 0 0)
(0.181275 0 0)
(0.178121 0 0)
(0.175009 0 0)
(0.171941 0 0)
(0.168915 0 0)
(0.165931 0 0)
(0.162989 0 0)
(0.160088 0 0)
(0.157229 0 0)
(0.15441 0 0)
(0.151631 0 0)
(0.148893 0 0)
(0.146194 0 0)
(0.143534 0 0)
(0.140913 0 0)
(0.138331 0 0)
(0.135787 0 0)
(0.133281 0 0)
(0.130812 0 0)
(0.12838 0 0)
(0.125984 0 0)
(0.123625 0 0)
(0.121303 0 0)
(0.119015 0 0)
(0.116763 0 0)
(0.114545 0 0)
(0.112362 0 0)
(0.110214 0 0)
(0.108099 0 0)
(0.106017 0 0)
(0.103968 0 0)
(0.101952 0 0)
(0.099968 0 0)
(0.0980161 0 0)
(0.0960956 0 0)
(0.0942064 0 0)
(0.092348 0 0)
(0.09052 0 0)
(0.0887221 0 0)
(0.0869539 0 0)
(0.0852152 0 0)
(0.0835054 0 0)
(0.0818244 0 0)
(0.0801717 0 0)
(0.0785469 0 0)
(0.0769498 0 0)
(0.0753799 0 0)
(0.073837 0 0)
(0.0723206 0 0)
(0.0708305 0 0)
(0.0693663 0 0)
(0.0679277 0 0)
(0.0665143 0 0)
(0.0651259 0 0)
(0.0637619 0 0)
(0.0624223 0 0)
(0.0611065 0 0)
(0.0598143 0 0)
(0.0585454 0 0)
(0.0572994 0 0)
(0.056076 0 0)
(0.0548749 0 0)
(0.0536958 0 0)
(0.0525384 0 0)
(0.0514024 0 0)
(0.0502874 0 0)
(0.0491932 0 0)
(0.0481194 0 0)
(0.0470658 0 0)
(0.046032 0 0)
(0.0450178 0 0)
(0.0440228 0 0)
(0.0430469 0 0)
(0.0420896 0 0)
(0.0411507 0 0)
(0.04023 0 0)
(0.039327 0 0)
(0.0384417 0 0)
(0.0375737 0 0)
(0.0367226 0 0)
(0.0358884 0 0)
(0.0350706 0 0)
(0.034269 0 0)
(0.0334834 0 0)
(0.0327135 0 0)
(0.0319591 0 0)
(0.0312199 0 0)
(0.0304956 0 0)
(0.029786 0 0)
(0.0290908 0 0)
(0.0284099 0 0)
(0.027743 0 0)
(0.0270898 0 0)
(0.0264501 0 0)
(0.0258237 0 0)
(0.0252104 0 0)
(0.0246098 0 0)
(0.0240219 0 0)
(0.0234464 0 0)
(0.022883 0 0)
(0.0223316 0 0)
(0.0217919 0 0)
(0.0212637 0 0)
(0.0207469 0 0)
(0.0202412 0 0)
(0.0197465 0 0)
(0.0192624 0 0)
(0.0187889 0 0)
(0.0183257 0 0)
(0.0178727 0 0)
(0.0174296 0 0)
(0.0169963 0 0)
(0.0165726 0 0)
(0.0161583 0 0)
(0.0157532 0 0)
(0.0153572 0 0)
(0.0149701 0 0)
(0.0145916 0 0)
(0.0142218 0 0)
(0.0138603 0 0)
(0.013507 0 0)
(0.0131619 0 0)
(0.0128246 0 0)
(0.012495 0 0)
(0.0121731 0 0)
(0.0118586 0 0)
(0.0115514 0 0)
(0.0112513 0 0)
(0.0109583 0 0)
(0.0106721 0 0)
(0.0103927 0 0)
(0.0101198 0 0)
(0.00985341 0 0)
(0.00959333 0 0)
(0.00933945 0 0)
(0.00909163 0 0)
(0.00884975 0 0)
(0.00861369 0 0)
(0.00838332 0 0)
(0.00815852 0 0)
(0.00793918 0 0)
(0.00772518 0 0)
(0.0075164 0 0)
(0.00731274 0 0)
(0.00711409 0 0)
(0.00692033 0 0)
(0.00673136 0 0)
(0.00654708 0 0)
(0.00636739 0 0)
(0.00619218 0 0)
(0.00602136 0 0)
(0.00585482 0 0)
(0.00569248 0 0)
(0.00553424 0 0)
(0.00538001 0 0)
(0.0052297 0 0)
(0.00508322 0 0)
(0.00494049 0 0)
(0.00480142 0 0)
(0.00466592 0 0)
(0.00453392 0 0)
(0.00440533 0 0)
(0.00428008 0 0)
(0.00415809 0 0)
(0.00403928 0 0)
(2.7621 0 0)
(2.75816 0 0)
(2.75417 0 0)
(2.75013 0 0)
(2.74604 0 0)
(2.7419 0 0)
(2.73771 0 0)
(2.73347 0 0)
(2.72918 0 0)
(2.72484 0 0)
(2.72045 0 0)
(2.71601 0 0)
(2.71151 0 0)
(2.70696 0 0)
(2.70236 0 0)
(2.69771 0 0)
(2.693 0 0)
(2.68824 0 0)
(2.68343 0 0)
(2.67857 0 0)
(2.67365 0 0)
(2.66867 0 0)
(2.66365 0 0)
(2.65856 0 0)
(2.65343 0 0)
(2.64824 0 0)
(2.64299 0 0)
(2.63769 0 0)
(2.63233 0 0)
(2.62692 0 0)
(2.62146 0 0)
(2.61593 0 0)
(2.61036 0 0)
(2.60472 0 0)
(2.59903 0 0)
(2.59329 0 0)
(2.58748 0 0)
(2.58163 0 0)
(2.57571 0 0)
(2.56974 0 0)
(2.56371 0 0)
(2.55763 0 0)
(2.55149 0 0)
(2.54529 0 0)
(2.53904 0 0)
(2.53273 0 0)
(2.52636 0 0)
(2.51994 0 0)
(2.51345 0 0)
(2.50692 0 0)
(2.50032 0 0)
(2.49367 0 0)
(2.48696 0 0)
(2.4802 0 0)
(2.47338 0 0)
(2.4665 0 0)
(2.45957 0 0)
(2.45258 0 0)
(2.44554 0 0)
(2.43843 0 0)
(2.43128 0 0)
(2.42406 0 0)
(2.41679 0 0)
(2.40947 0 0)
(2.40209 0 0)
(2.39465 0 0)
(2.38716 0 0)
(2.37961 0 0)
(2.37201 0 0)
(2.36436 0 0)
(2.35665 0 0)
(2.34889 0 0)
(2.34107 0 0)
(2.3332 0 0)
(2.32527 0 0)
(2.3173 0 0)
(2.30927 0 0)
(2.30118 0 0)
(2.29305 0 0)
(2.28486 0 0)
(2.27662 0 0)
(2.26833 0 0)
(2.25999 0 0)
(2.2516 0 0)
(2.24316 0 0)
(2.23467 0 0)
(2.22613 0 0)
(2.21754 0 0)
(2.2089 0 0)
(2.20021 0 0)
(2.19147 0 0)
(2.18269 0 0)
(2.17386 0 0)
(2.16498 0 0)
(2.15606 0 0)
(2.14709 0 0)
(2.13808 0 0)
(2.12902 0 0)
(2.11991 0 0)
(2.11077 0 0)
(2.10157 0 0)
(2.09234 0 0)
(2.08307 0 0)
(2.07375 0 0)
(2.06439 0 0)
(2.05499 0 0)
(2.04555 0 0)
(2.03607 0 0)
(2.02655 0 0)
(2.017 0 0)
(2.0074 0 0)
(1.99777 0 0)
(1.9881 0 0)
(1.9784 0 0)
(1.96866 0 0)
(1.95888 0 0)
(1.94908 0 0)
(1.93923 0 0)
(1.92936 0 0)
(1.91945 0 0)
(1.90952 0 0)
(1.89955 0 0)
(1.88955 0 0)
(1.87952 0 0)
(1.86947 0 0)
(1.85938 0 0)
(1.84927 0 0)
(1.83913 0 0)
(1.82897 0 0)
(1.81878 0 0)
(1.80857 0 0)
(1.79833 0 0)
(1.78807 0 0)
(1.77779 0 0)
(1.76749 0 0)
(1.75716 0 0)
(1.74682 0 0)
(1.73646 0 0)
(1.72608 0 0)
(1.71568 0 0)
(1.70527 0 0)
(1.69483 0 0)
(1.68439 0 0)
(1.67393 0 0)
(1.66346 0 0)
(1.65297 0 0)
(1.64247 0 0)
(1.63196 0 0)
(1.62144 0 0)
(1.61092 0 0)
(1.60038 0 0)
(1.58983 0 0)
(1.57928 0 0)
(1.56872 0 0)
(1.55816 0 0)
(1.54759 0 0)
(1.53702 0 0)
(1.52644 0 0)
(1.51587 0 0)
(1.50529 0 0)
(1.49471 0 0)
(1.48413 0 0)
(1.47356 0 0)
(1.46298 0 0)
(1.45241 0 0)
(1.44184 0 0)
(1.43128 0 0)
(1.42072 0 0)
(1.41017 0 0)
(1.39962 0 0)
(1.38908 0 0)
(1.37856 0 0)
(1.36804 0 0)
(1.35753 0 0)
(1.34703 0 0)
(1.33654 0 0)
(1.32607 0 0)
(1.31561 0 0)
(1.30517 0 0)
(1.29473 0 0)
(1.28432 0 0)
(1.27392 0 0)
(1.26354 0 0)
(1.25318 0 0)
(1.24284 0 0)
(1.23251 0 0)
(1.22221 0 0)
(1.21193 0 0)
(1.20167 0 0)
(1.19143 0 0)
(1.18122 0 0)
(1.17103 0 0)
(1.16087 0 0)
(1.15073 0 0)
(1.14062 0 0)
(1.13053 0 0)
(1.12048 0 0)
(1.11045 0 0)
(1.10045 0 0)
(1.09048 0 0)
(1.08055 0 0)
(1.07064 0 0)
(1.06077 0 0)
(1.05092 0 0)
(1.04112 0 0)
(1.03134 0 0)
(1.0216 0 0)
(1.0119 0 0)
(1.00223 0 0)
(0.992599 0 0)
(0.983005 0 0)
(0.973448 0 0)
(0.96393 0 0)
(0.954451 0 0)
(0.945011 0 0)
(0.935611 0 0)
(0.926253 0 0)
(0.916935 0 0)
(0.907659 0 0)
(0.898425 0 0)
(0.889235 0 0)
(0.880087 0 0)
(0.870984 0 0)
(0.861924 0 0)
(0.85291 0 0)
(0.843941 0 0)
(0.835017 0 0)
(0.82614 0 0)
(0.81731 0 0)
(0.808527 0 0)
(0.799791 0 0)
(0.791103 0 0)
(0.782464 0 0)
(0.773873 0 0)
(0.765332 0 0)
(0.75684 0 0)
(0.748398 0 0)
(0.740007 0 0)
(0.731666 0 0)
(0.723376 0 0)
(0.715137 0 0)
(0.70695 0 0)
(0.698815 0 0)
(0.690733 0 0)
(0.682703 0 0)
(0.674725 0 0)
(0.666801 0 0)
(0.65893 0 0)
(0.651113 0 0)
(0.64335 0 0)
(0.63564 0 0)
(0.627986 0 0)
(0.620385 0 0)
(0.612839 0 0)
(0.605349 0 0)
(0.597913 0 0)
(0.590533 0 0)
(0.583208 0 0)
(0.575938 0 0)
(0.568725 0 0)
(0.561567 0 0)
(0.554465 0 0)
(0.547419 0 0)
(0.54043 0 0)
(0.533496 0 0)
(0.52662 0 0)
(0.519799 0 0)
(0.513035 0 0)
(0.506328 0 0)
(0.499677 0 0)
(0.493083 0 0)
(0.486546 0 0)
(0.480065 0 0)
(0.473641 0 0)
(0.467274 0 0)
(0.460963 0 0)
(0.454709 0 0)
(0.448512 0 0)
(0.442371 0 0)
(0.436287 0 0)
(0.43026 0 0)
(0.424289 0 0)
(0.418374 0 0)
(0.412516 0 0)
(0.406714 0 0)
(0.400968 0 0)
(0.395278 0 0)
(0.389645 0 0)
(0.384067 0 0)
(0.378544 0 0)
(0.373078 0 0)
(0.367666 0 0)
(0.36231 0 0)
(0.35701 0 0)
(0.351764 0 0)
(0.346573 0 0)
(0.341437 0 0)
(0.336355 0 0)
(0.331327 0 0)
(0.326354 0 0)
(0.321434 0 0)
(0.316569 0 0)
(0.311756 0 0)
(0.306997 0 0)
(0.302291 0 0)
(0.297638 0 0)
(0.293038 0 0)
(0.288489 0 0)
(0.283993 0 0)
(0.279549 0 0)
(0.275157 0 0)
(0.270815 0 0)
(0.266525 0 0)
(0.262286 0 0)
(0.258097 0 0)
(0.253958 0 0)
(0.24987 0 0)
(0.245831 0 0)
(0.241841 0 0)
(0.237901 0 0)
(0.234009 0 0)
(0.230166 0 0)
(0.226371 0 0)
(0.222624 0 0)
(0.218924 0 0)
(0.215272 0 0)
(0.211667 0 0)
(0.208108 0 0)
(0.204595 0 0)
(0.201129 0 0)
(0.197708 0 0)
(0.194332 0 0)
(0.191001 0 0)
(0.187715 0 0)
(0.184473 0 0)
(0.181275 0 0)
(0.178121 0 0)
(0.175009 0 0)
(0.171941 0 0)
(0.168915 0 0)
(0.165931 0 0)
(0.162989 0 0)
(0.160088 0 0)
(0.157229 0 0)
(0.15441 0 0)
(0.151631 0 0)
(0.148893 0 0)
(0.146194 0 0)
(0.143534 0 0)
(0.140913 0 0)
(0.138331 0 0)
(0.135787 0 0)
(0.133281 0 0)
(0.130812 0 0)
(0.12838 0 0)
(0.125984 0 0)
(0.123625 0 0)
(0.121303 0 0)
(0.119015 0 0)
(0.116763 0 0)
(0.114545 0 0)
(0.112362 0 0)
(0.110214 0 0)
(0.108099 0 0)
(0.106017 0 0)
(0.103968 0 0)
(0.101952 0 0)
(0.099968 0 0)
(0.0980161 0 0)
(0.0960956 0 0)
(0.0942064 0 0)
(0.092348 0 0)
(0.09052 0 0)
(0.0887221 0 0)
(0.0869539 0 0)
(0.0852152 0 0)
(0.0835054 0 0)
(0.0818244 0 0)
(0.0801717 0 0)
(0.0785469 0 0)
(0.0769498 0 0)
(0.0753799 0 0)
(0.073837 0 0)
(0.0723206 0 0)
(0.0708305 0 0)
(0.0693663 0 0)
(0.0679277 0 0)
(0.0665143 0 0)
(0.0651259 0 0)
(0.0637619 0 0)
(0.0624223 0 0)
(0.0611065 0 0)
(0.0598143 0 0)
(0.0585454 0 0)
(0.0572994 0 0)
(0.056076 0 0)
(0.0548749 0 0)
(0.0536958 0 0)
(0.0525384 0 0)
(0.0514024 0 0)
(0.0502874 0 0)
(0.0491932 0 0)
(0.0481194 0 0)
(0.0470658 0 0)
(0.046032 0 0)
(0.0450178 0 0)
(0.0440228 0 0)
(0.0430469 0 0)
(0.0420896 0 0)
(0.0411507 0 0)
(0.04023 0 0)
(0.039327 0 0)
(0.0384417 0 0)
(0.0375737 0 0)
(0.0367226 0 0)
(0.0358884 0 0)
(0.0350706 0 0)
(0.034269 0 0)
(0.0334834 0 0)
(0.0327135 0 0)
(0.0319591 0 0)
(0.0312199 0 0)
(0.0304956 0 0)
(0.029786 0 0)
(0.0290908 0 0)
(0.0284099 0 0)
(0.027743 0 0)
(0.0270898 0 0)
(0.0264501 0 0)
(0.0258237 0 0)
(0.0252104 0 0)
(0.0246098 0 0)
(0.0240219 0 0)
(0.0234464 0 0)
(0.022883 0 0)
(0.0223316 0 0)
(0.0217919 0 0)
(0.0212637 0 0)
(0.0207469 0 0)
(0.0202412 0 0)
(0.0197465 0 0)
(0.0192624 0 0)
(0.0187889 0 0)
(0.0183257 0 0)
(0.0178727 0 0)
(0.0174296 0 0)
(0.0169963 0 0)
(0.0165726 0 0)
(0.0161583 0 0)
(0.0157532 0 0)
(0.0153572 0 0)
(0.0149701 0 0)
(0.0145916 0 0)
(0.0142218 0 0)
(0.0138603 0 0)
(0.013507 0 0)
(0.0131619 0 0)
(0.0128246 0 0)
(0.012495 0 0)
(0.0121731 0 0)
(0.0118586 0 0)
(0.0115514 0 0)
(0.0112513 0 0)
(0.0109583 0 0)
(0.0106721 0 0)
(0.0103927 0 0)
(0.0101198 0 0)
(0.00985341 0 0)
(0.00959333 0 0)
(0.00933945 0 0)
(0.00909163 0 0)
(0.00884975 0 0)
(0.00861369 0 0)
(0.00838332 0 0)
(0.00815852 0 0)
(0.00793918 0 0)
(0.00772518 0 0)
(0.0075164 0 0)
(0.00731274 0 0)
(0.00711409 0 0)
(0.00692033 0 0)